# Solver information
# Time        	U_solver      	Ux_initial    	Ux_final      	Ux_iters      	Uy_initial    	Uy_final      	Uy_iters      	Uz_initial    	Uz_final      	Uz_iters      	U_converged   	k_solver      	k_initial     	k_final       	k_iters       	k_converged   	p_solver      	p_initial     	p_final       	p_iters       	p_converged   	omega_solver  	omega_initial 	omega_final   	omega_iters   	omega_converged
1             	smoothSolver	1.000000e+00	9.793730e-02	13	1.000000e+00	9.122880e-02	13	1.000000e+00	9.456050e-02	13	false	smoothSolver	1.000000e+00	5.845190e-02	5	true	GAMG	1.000000e+00	7.206630e-03	12	true	smoothSolver	1.872350e-03	1.545400e-04	3	true
2             	smoothSolver	1.485920e-02	1.353220e-03	14	5.671760e-01	5.374550e-02	14	5.647390e-01	5.380310e-02	14	false	smoothSolver	1.608550e-01	1.508290e-02	4	true	GAMG	4.799870e-01	2.473440e-03	10	true	smoothSolver	7.649190e-04	5.599510e-05	4	true
3             	smoothSolver	4.007030e-03	3.863760e-04	12	1.275070e-01	1.185990e-02	13	8.152310e-02	7.707020e-03	13	false	smoothSolver	4.915060e-02	4.745650e-03	4	true	GAMG	1.156420e-02	9.984100e-05	9	true	smoothSolver	5.081100e-04	4.337080e-05	4	true
4             	smoothSolver	2.327330e-03	2.273500e-04	11	6.992170e-02	6.818700e-03	11	4.241840e-02	4.223750e-03	11	false	smoothSolver	2.479330e-02	1.541820e-03	5	true	GAMG	7.629460e-03	5.683360e-05	7	true	smoothSolver	3.779420e-04	3.331630e-05	4	true
5             	smoothSolver	1.770010e-03	1.617090e-04	11	5.757050e-02	5.453840e-03	11	3.169700e-02	3.029750e-03	11	false	smoothSolver	1.568680e-02	1.008050e-03	5	true	GAMG	5.009350e-03	3.760580e-05	6	true	smoothSolver	3.174410e-04	2.770230e-05	4	true
6             	smoothSolver	1.463240e-03	1.456160e-04	11	4.576130e-02	4.550810e-03	11	2.309280e-02	2.303270e-03	11	false	smoothSolver	1.103290e-02	7.221630e-04	5	true	GAMG	4.592970e-03	3.387120e-05	5	true	smoothSolver	2.835210e-04	2.500590e-05	4	true
7             	smoothSolver	1.073560e-03	1.036000e-04	11	3.773240e-02	3.431380e-03	11	1.804590e-02	1.664670e-03	11	false	smoothSolver	8.117060e-03	5.382160e-04	5	true	GAMG	3.893040e-03	3.561260e-05	5	true	smoothSolver	2.528390e-04	2.275370e-05	4	true
8             	smoothSolver	7.989990e-04	6.897360e-05	12	3.316410e-02	3.103590e-03	11	1.479640e-02	1.408880e-03	11	false	smoothSolver	6.207010e-03	4.162470e-04	5	true	GAMG	3.404060e-03	2.229980e-05	5	true	smoothSolver	2.262360e-04	2.091080e-05	4	true
9             	smoothSolver	6.218430e-04	5.298410e-05	12	3.044180e-02	2.803960e-03	11	1.244050e-02	1.162720e-03	11	false	smoothSolver	4.927710e-03	3.328150e-04	5	true	GAMG	2.896490e-03	1.890690e-05	5	true	smoothSolver	2.041480e-04	1.942760e-05	4	true
10            	smoothSolver	5.180960e-04	4.390180e-05	12	2.960560e-02	2.693920e-03	11	1.077020e-02	9.933550e-04	11	false	smoothSolver	4.040450e-03	2.734970e-04	5	true	GAMG	2.365210e-03	1.203160e-05	5	true	smoothSolver	1.856180e-04	1.817470e-05	4	true
11            	smoothSolver	4.376390e-04	3.791050e-05	12	3.081360e-02	2.836540e-03	11	9.594760e-03	8.933840e-04	11	false	smoothSolver	3.401390e-03	2.300570e-04	5	true	GAMG	2.058400e-03	1.048600e-05	5	true	smoothSolver	1.696540e-04	1.115360e-05	5	true
12            	smoothSolver	3.626110e-04	3.191730e-05	12	3.575620e-02	3.206220e-03	11	8.881590e-03	8.061540e-04	11	false	smoothSolver	2.923810e-03	1.969240e-04	5	true	GAMG	1.783590e-03	9.991940e-06	5	true	smoothSolver	1.551910e-04	1.045540e-05	5	true
13            	smoothSolver	3.053840e-04	2.734070e-05	12	2.700940e-02	2.413280e-03	11	8.456140e-03	7.696630e-04	11	false	smoothSolver	2.558310e-03	1.716050e-04	5	true	GAMG	1.610630e-03	8.677580e-06	5	true	smoothSolver	1.426120e-04	9.799020e-06	5	true
14            	smoothSolver	2.638230e-04	2.366000e-05	12	1.761620e-02	1.559540e-03	11	8.306900e-03	7.548060e-04	11	false	smoothSolver	2.267780e-03	1.517890e-04	5	true	GAMG	1.455210e-03	7.719020e-06	5	true	smoothSolver	1.316390e-04	9.174740e-06	5	true
15            	smoothSolver	2.332360e-04	2.089610e-05	12	1.219180e-02	1.114180e-03	11	8.406080e-03	7.942060e-04	11	false	smoothSolver	2.032640e-03	1.364290e-04	5	true	GAMG	1.319260e-03	6.681400e-06	5	true	smoothSolver	1.217710e-04	8.580130e-06	5	true
16            	smoothSolver	2.063720e-04	1.836640e-05	12	9.052950e-03	8.336430e-04	11	8.908040e-03	8.495160e-04	11	false	smoothSolver	1.839620e-03	1.249030e-04	5	true	GAMG	1.190500e-03	5.956440e-06	5	true	smoothSolver	1.128670e-04	8.024830e-06	5	true
17            	smoothSolver	1.803820e-04	1.618810e-05	12	6.911010e-03	6.416790e-04	11	9.339700e-03	8.967280e-04	11	false	smoothSolver	1.681490e-03	1.155860e-04	5	true	GAMG	1.065230e-03	5.193410e-06	5	true	smoothSolver	1.046420e-04	7.488540e-06	5	true
18            	smoothSolver	1.569790e-04	1.435040e-05	12	5.442580e-03	5.120600e-04	11	9.875530e-03	9.554220e-04	11	false	smoothSolver	1.549640e-03	1.072530e-04	5	true	GAMG	9.535630e-04	4.582150e-06	5	true	smoothSolver	9.685730e-05	6.961220e-06	5	true
19            	smoothSolver	1.374900e-04	1.276870e-05	12	4.404340e-03	4.210990e-04	11	1.097210e-02	1.068730e-03	11	false	smoothSolver	1.433690e-03	9.936020e-05	5	true	GAMG	8.523180e-04	4.180950e-06	5	true	smoothSolver	8.963130e-05	6.458870e-06	5	true
20            	smoothSolver	1.212790e-04	1.141370e-05	12	3.631230e-03	3.523340e-04	11	1.328530e-02	1.303990e-03	11	false	smoothSolver	1.326120e-03	9.161860e-05	5	true	GAMG	7.717670e-04	3.918450e-06	5	true	smoothSolver	8.292720e-05	5.972380e-06	5	true
21            	smoothSolver	1.070720e-04	1.024700e-05	12	3.026330e-03	2.972250e-04	11	1.353560e-02	1.339060e-03	11	false	smoothSolver	1.223570e-03	8.399160e-05	5	true	GAMG	7.055370e-04	3.735330e-06	5	true	smoothSolver	7.692010e-05	5.516460e-06	5	true
22            	smoothSolver	9.509010e-05	9.255440e-06	12	2.525460e-03	2.513870e-04	11	8.940520e-03	7.622070e-04	12	false	smoothSolver	1.124820e-03	7.655950e-05	5	true	GAMG	6.513710e-04	3.687310e-06	5	true	smoothSolver	7.139080e-05	5.100000e-06	5	true
23            	smoothSolver	8.561150e-05	8.419420e-06	12	2.113540e-03	1.815100e-04	12	6.660910e-03	5.793020e-04	12	false	smoothSolver	1.029700e-03	6.943320e-05	5	true	GAMG	6.017430e-04	3.544440e-06	5	true	smoothSolver	6.642130e-05	4.726230e-06	5	true
24            	smoothSolver	7.787010e-05	7.722890e-06	12	1.804180e-03	1.568890e-04	12	5.305420e-03	4.684630e-04	12	false	smoothSolver	9.386280e-04	6.270190e-05	5	true	GAMG	5.561470e-04	3.220810e-06	5	true	smoothSolver	6.197010e-05	4.379580e-06	5	true
25            	smoothSolver	7.080920e-05	6.155310e-06	13	1.579960e-03	1.381350e-04	12	4.310100e-03	3.838200e-04	12	false	smoothSolver	8.522150e-04	5.644550e-05	5	true	GAMG	5.127460e-04	2.975450e-06	5	true	smoothSolver	5.777390e-05	4.058860e-06	5	true
26            	smoothSolver	6.438570e-05	5.712750e-06	13	1.413330e-03	1.252340e-04	12	3.520880e-03	3.181700e-04	12	false	smoothSolver	7.709820e-04	5.069040e-05	5	true	GAMG	4.763880e-04	2.857400e-06	5	true	smoothSolver	5.394980e-05	3.769460e-06	5	true
27            	smoothSolver	5.896940e-05	5.335590e-06	13	1.281010e-03	1.159050e-04	12	2.937570e-03	2.706190e-04	12	false	smoothSolver	6.955130e-04	4.545040e-05	5	true	GAMG	4.462000e-04	2.817840e-06	5	true	smoothSolver	5.050730e-05	3.505460e-06	5	true
28            	smoothSolver	5.480460e-05	4.997200e-06	13	1.167660e-03	1.082270e-04	12	2.511170e-03	2.370650e-04	12	false	smoothSolver	6.263500e-04	4.072540e-05	5	true	GAMG	4.200210e-04	2.870410e-06	5	true	smoothSolver	4.729250e-05	3.262020e-06	5	true
29            	smoothSolver	5.161350e-05	4.683340e-06	13	1.068540e-03	1.014290e-04	12	2.186570e-03	2.117580e-04	12	false	smoothSolver	5.633950e-04	3.646870e-05	5	true	GAMG	3.998540e-04	2.928080e-06	5	true	smoothSolver	4.433800e-05	3.040500e-06	5	true
30            	smoothSolver	4.909170e-05	4.401420e-06	13	9.890700e-04	9.606300e-05	12	1.923370e-03	1.904070e-04	12	false	smoothSolver	5.066290e-04	3.265180e-05	5	true	GAMG	3.846900e-04	2.949140e-06	5	true	smoothSolver	4.169900e-05	2.845200e-06	5	true
31            	smoothSolver	4.683080e-05	4.150650e-06	13	9.219800e-04	9.176840e-05	12	1.695240e-03	1.477670e-04	13	false	smoothSolver	4.558190e-04	2.925090e-05	5	true	GAMG	3.724660e-04	3.074060e-06	5	true	smoothSolver	3.936370e-05	2.673150e-06	5	true
32            	smoothSolver	4.468900e-05	3.933050e-06	13	8.620300e-04	7.583580e-05	13	1.502590e-03	1.333290e-04	13	false	smoothSolver	4.106730e-04	2.624140e-05	5	true	GAMG	3.642990e-04	3.244450e-06	5	true	smoothSolver	3.730050e-05	2.518720e-06	5	true
33            	smoothSolver	4.264120e-05	3.738050e-06	13	8.084460e-04	7.234110e-05	13	1.344110e-03	1.209130e-04	13	false	smoothSolver	3.706900e-04	2.359240e-05	5	true	GAMG	3.587120e-04	3.443400e-06	5	true	smoothSolver	3.544380e-05	2.381560e-06	5	true
34            	smoothSolver	4.069570e-05	3.557750e-06	13	7.614780e-04	6.897000e-05	13	1.212420e-03	1.102460e-04	13	false	smoothSolver	3.354940e-04	2.127180e-05	5	true	GAMG	3.548540e-04	2.295670e-06	6	true	smoothSolver	3.375920e-05	2.261350e-06	5	true
35            	smoothSolver	3.893890e-05	3.393640e-06	13	7.210880e-04	6.606340e-05	13	1.106660e-03	1.015510e-04	13	false	smoothSolver	3.046030e-04	1.923620e-05	5	true	GAMG	3.548530e-04	2.393080e-06	6	true	smoothSolver	3.222820e-05	2.154420e-06	5	true
36            	smoothSolver	3.732170e-05	3.249100e-06	13	6.840760e-04	6.296520e-05	13	1.014440e-03	9.350660e-05	13	false	smoothSolver	2.774390e-04	1.745480e-05	5	true	GAMG	3.560400e-04	2.572040e-06	6	true	smoothSolver	3.084150e-05	2.060080e-06	5	true
37            	smoothSolver	3.595190e-05	3.119710e-06	13	6.527750e-04	6.031470e-05	13	9.379570e-04	8.685400e-05	13	false	smoothSolver	2.536410e-04	1.590430e-05	5	true	GAMG	3.591010e-04	2.765860e-06	6	true	smoothSolver	2.962400e-05	1.976230e-06	5	true
38            	smoothSolver	3.475940e-05	3.002700e-06	13	6.242160e-04	5.783130e-05	13	8.713970e-04	8.106670e-05	13	false	smoothSolver	2.328470e-04	1.455190e-05	5	true	GAMG	3.643650e-04	3.041580e-06	6	true	smoothSolver	2.850100e-05	1.901580e-06	5	true
39            	smoothSolver	3.369220e-05	2.893370e-06	13	6.002900e-04	5.577170e-05	13	8.160150e-04	7.629720e-05	13	false	smoothSolver	2.146260e-04	1.338110e-05	5	true	GAMG	3.727340e-04	3.338870e-06	6	true	smoothSolver	2.745140e-05	1.837040e-06	5	true
40            	smoothSolver	3.278270e-05	3.264560e-06	12	5.805890e-04	5.412540e-05	13	7.681240e-04	7.227230e-05	13	false	smoothSolver	1.986900e-04	1.237430e-05	5	true	GAMG	3.840970e-04	3.614870e-06	6	true	smoothSolver	2.651420e-05	1.780900e-06	5	true
41            	smoothSolver	3.197110e-05	3.164980e-06	12	5.640900e-04	5.260360e-05	13	7.258920e-04	6.847280e-05	13	false	smoothSolver	1.850600e-04	1.152090e-05	5	true	GAMG	3.955240e-04	3.886960e-06	6	true	smoothSolver	2.569490e-05	1.732470e-06	5	true
42            	smoothSolver	3.119030e-05	3.080950e-06	12	5.515790e-04	5.157400e-05	13	6.918450e-04	6.548350e-05	13	false	smoothSolver	1.735920e-04	1.081060e-05	5	true	GAMG	4.079110e-04	2.659590e-06	7	true	smoothSolver	2.497140e-05	1.691700e-06	5	true
43            	smoothSolver	3.050420e-05	3.026230e-06	12	5.437190e-04	5.122230e-05	13	6.661260e-04	6.350080e-05	13	false	smoothSolver	1.640540e-04	1.023300e-05	5	true	GAMG	4.230580e-04	2.860780e-06	7	true	smoothSolver	2.433630e-05	1.658430e-06	5	true
44            	smoothSolver	2.991000e-05	2.565060e-06	13	5.361000e-04	5.081640e-05	13	6.430250e-04	6.157400e-05	13	false	smoothSolver	1.562390e-04	9.778510e-06	5	true	GAMG	4.431350e-04	3.367750e-06	7	true	smoothSolver	2.379440e-05	1.632020e-06	5	true
45            	smoothSolver	2.959740e-05	2.562260e-06	13	5.336610e-04	5.101890e-05	13	6.279320e-04	6.047410e-05	13	false	smoothSolver	1.499350e-04	9.427250e-06	5	true	GAMG	4.681430e-04	3.729920e-06	7	true	smoothSolver	2.336020e-05	1.610500e-06	5	true
46            	smoothSolver	2.956380e-05	2.589220e-06	13	5.335250e-04	5.121320e-05	13	6.168570e-04	5.958840e-05	13	false	smoothSolver	1.450770e-04	9.168390e-06	5	true	GAMG	4.962540e-04	4.010890e-06	7	true	smoothSolver	2.302410e-05	1.591610e-06	5	true
47            	smoothSolver	2.983720e-05	2.645730e-06	13	5.374560e-04	5.159830e-05	13	6.124860e-04	5.922570e-05	13	false	smoothSolver	1.415690e-04	8.973490e-06	5	true	GAMG	5.291340e-04	4.231430e-06	7	true	smoothSolver	2.275770e-05	1.572520e-06	5	true
48            	smoothSolver	3.031270e-05	2.724230e-06	13	5.439440e-04	5.230360e-05	13	6.131190e-04	5.928920e-05	13	false	smoothSolver	1.394240e-04	8.823410e-06	5	true	GAMG	5.705300e-04	4.448510e-06	7	true	smoothSolver	2.256930e-05	1.552780e-06	5	true
49            	smoothSolver	3.090270e-05	2.817070e-06	13	5.544070e-04	5.351550e-05	13	6.212100e-04	6.003780e-05	13	false	smoothSolver	1.386060e-04	8.714940e-06	5	true	GAMG	6.164150e-04	4.639820e-06	7	true	smoothSolver	2.245720e-05	1.534100e-06	5	true
50            	smoothSolver	3.153010e-05	2.905350e-06	13	5.668290e-04	5.479830e-05	13	6.354560e-04	6.138200e-05	13	false	smoothSolver	1.390910e-04	8.652430e-06	5	true	GAMG	6.633880e-04	4.863820e-06	7	true	smoothSolver	2.240630e-05	1.517360e-06	5	true
51            	smoothSolver	3.217810e-05	2.968700e-06	13	5.824280e-04	5.609910e-05	13	6.570680e-04	6.313400e-05	13	false	smoothSolver	1.406540e-04	8.632010e-06	5	true	GAMG	7.090750e-04	5.104340e-06	7	true	smoothSolver	2.240370e-05	1.502450e-06	5	true
52            	smoothSolver	3.290040e-05	3.025360e-06	13	6.019350e-04	5.765900e-05	13	6.874920e-04	6.550730e-05	13	false	smoothSolver	1.432500e-04	8.663290e-06	5	true	GAMG	7.543600e-04	5.468290e-06	7	true	smoothSolver	2.243640e-05	1.489650e-06	5	true
53            	smoothSolver	3.372690e-05	3.093620e-06	13	6.291740e-04	5.981270e-05	13	7.302690e-04	6.895760e-05	13	false	smoothSolver	1.468880e-04	8.754420e-06	5	true	GAMG	8.015880e-04	5.800760e-06	7	true	smoothSolver	2.248510e-05	1.478330e-06	5	true
54            	smoothSolver	3.469410e-05	3.175470e-06	13	6.675420e-04	6.291980e-05	13	7.881280e-04	7.383950e-05	13	false	smoothSolver	1.512530e-04	1.498730e-05	4	true	GAMG	8.552820e-04	6.022650e-06	7	true	smoothSolver	2.253230e-05	1.468520e-06	5	true
55            	smoothSolver	3.581700e-05	3.267380e-06	13	7.219170e-04	6.740970e-05	13	8.649180e-04	8.045290e-05	13	false	smoothSolver	1.566700e-04	1.538550e-05	4	true	GAMG	9.201710e-04	6.120100e-06	7	true	smoothSolver	2.256090e-05	1.460430e-06	5	true
56            	smoothSolver	3.709190e-05	3.370280e-06	13	7.969480e-04	7.371240e-05	13	9.675640e-04	8.931680e-05	13	false	smoothSolver	1.625470e-04	1.587650e-05	4	true	GAMG	9.959220e-04	6.119470e-06	7	true	smoothSolver	2.257510e-05	1.452360e-06	5	true
57            	smoothSolver	3.858940e-05	3.481060e-06	13	9.009760e-04	8.236110e-05	13	1.105590e-03	1.012450e-04	13	false	smoothSolver	1.686720e-04	1.645860e-05	4	true	GAMG	1.083240e-03	1.071020e-05	6	true	smoothSolver	2.256450e-05	1.443620e-06	5	true
58            	smoothSolver	4.036090e-05	3.602600e-06	13	1.044550e-03	9.420070e-05	13	1.296000e-03	1.176290e-04	13	false	smoothSolver	1.753210e-04	1.712880e-05	4	true	GAMG	1.183700e-03	1.136020e-05	6	true	smoothSolver	2.252140e-05	1.433660e-06	5	true
59            	smoothSolver	4.217050e-05	3.727610e-06	13	1.246520e-03	1.111630e-04	13	1.564740e-03	1.411770e-04	13	false	smoothSolver	1.817540e-04	1.783610e-05	4	true	GAMG	1.296770e-03	1.208490e-05	6	true	smoothSolver	2.244900e-05	1.422560e-06	5	true
60            	smoothSolver	4.411470e-05	3.842620e-06	13	1.539700e-03	1.359730e-04	13	1.962190e-03	1.758430e-04	13	false	smoothSolver	1.883950e-04	1.855640e-05	4	true	GAMG	1.421710e-03	1.299970e-05	6	true	smoothSolver	2.234950e-05	1.409460e-06	5	true
61            	smoothSolver	4.611540e-05	3.948090e-06	13	1.988460e-03	1.741500e-04	13	2.591740e-03	2.307310e-04	13	false	smoothSolver	1.943830e-04	1.925580e-05	4	true	GAMG	1.555400e-03	1.365570e-05	6	true	smoothSolver	2.221680e-05	1.393910e-06	5	true
62            	smoothSolver	4.808370e-05	4.748170e-06	12	2.745850e-03	2.377910e-04	13	3.714610e-03	3.275420e-04	13	false	smoothSolver	2.001290e-04	1.993250e-05	4	true	GAMG	1.695150e-03	1.422610e-05	6	true	smoothSolver	2.205260e-05	1.376010e-06	5	true
63            	smoothSolver	4.981630e-05	4.834920e-06	12	4.218710e-03	3.609100e-04	13	6.109080e-03	5.329750e-04	13	false	smoothSolver	2.048850e-04	1.212650e-05	5	true	GAMG	1.832780e-03	1.490610e-05	6	true	smoothSolver	2.183460e-05	1.356390e-06	5	true
64            	smoothSolver	5.139320e-05	4.903560e-06	12	8.482550e-03	8.466400e-04	12	1.474560e-02	1.272160e-03	13	false	smoothSolver	2.085960e-04	1.245930e-05	5	true	GAMG	1.986420e-03	1.574230e-05	6	true	smoothSolver	2.160540e-05	1.335620e-06	5	true
65            	smoothSolver	5.274670e-05	4.939820e-06	12	1.865050e-02	1.845900e-03	12	1.217080e-02	1.037320e-03	13	false	smoothSolver	2.122090e-04	1.277730e-05	5	true	GAMG	2.164440e-03	1.663420e-05	6	true	smoothSolver	2.135500e-05	1.314890e-06	5	true
66            	smoothSolver	5.395750e-05	4.974830e-06	12	6.406220e-03	6.274290e-04	12	6.183780e-03	6.151310e-04	12	false	smoothSolver	2.164790e-04	1.314830e-05	5	true	GAMG	2.369350e-03	1.746820e-05	6	true	smoothSolver	2.110780e-05	2.107230e-06	4	true
67            	smoothSolver	5.520360e-05	5.015760e-06	12	3.909110e-03	3.780160e-04	12	4.264520e-03	4.184450e-04	12	false	smoothSolver	2.227260e-04	1.364490e-05	5	true	GAMG	2.598270e-03	1.830440e-05	6	true	smoothSolver	2.098940e-05	2.094790e-06	4	true
68            	smoothSolver	5.662300e-05	5.083430e-06	12	2.857270e-03	2.719140e-04	12	3.315440e-03	3.190260e-04	12	false	smoothSolver	2.310440e-04	1.429740e-05	5	true	GAMG	2.851620e-03	1.894800e-05	6	true	smoothSolver	2.088520e-05	2.081760e-06	4	true
69            	smoothSolver	5.835790e-05	5.165370e-06	12	2.281390e-03	2.128830e-04	12	2.751970e-03	2.584920e-04	12	false	smoothSolver	2.413710e-04	1.511720e-05	5	true	GAMG	3.123590e-03	1.925910e-05	6	true	smoothSolver	2.077780e-05	2.068220e-06	4	true
70            	smoothSolver	6.045750e-05	5.259540e-06	12	1.917560e-03	1.750430e-04	12	2.385870e-03	2.188360e-04	12	false	smoothSolver	2.541990e-04	1.609510e-05	5	true	GAMG	3.401860e-03	1.912720e-05	6	true	smoothSolver	2.066740e-05	2.052210e-06	4	true
71            	smoothSolver	6.285450e-05	5.380110e-06	12	1.666790e-03	1.488620e-04	12	2.139190e-03	1.920540e-04	12	false	smoothSolver	2.686710e-04	1.717300e-05	5	true	GAMG	3.679440e-03	1.862100e-05	6	true	smoothSolver	2.053100e-05	2.033030e-06	4	true
72            	smoothSolver	6.537230e-05	5.525830e-06	12	1.482250e-03	1.296050e-04	12	1.965690e-03	1.734920e-04	12	false	smoothSolver	2.847540e-04	1.830510e-05	5	true	GAMG	3.927380e-03	1.852910e-05	6	true	smoothSolver	2.036050e-05	2.010030e-06	4	true
73            	smoothSolver	6.777210e-05	6.771220e-06	11	1.340790e-03	1.149540e-04	12	1.841620e-03	1.600160e-04	12	false	smoothSolver	3.023240e-04	1.942910e-05	5	true	GAMG	4.138880e-03	4.030870e-05	5	true	smoothSolver	2.015900e-05	1.985710e-06	4	true
74            	smoothSolver	7.009830e-05	6.943240e-06	11	1.223610e-03	1.024260e-04	12	1.746230e-03	1.481940e-04	12	false	smoothSolver	3.204450e-04	2.054050e-05	5	true	GAMG	4.282920e-03	4.125730e-05	5	true	smoothSolver	1.991870e-05	1.960310e-06	4	true
75            	smoothSolver	7.174370e-05	7.026050e-06	11	1.136760e-03	1.119290e-04	11	1.690240e-03	1.683780e-04	11	false	smoothSolver	3.394420e-04	2.164930e-05	5	true	GAMG	4.365160e-03	4.078780e-05	5	true	smoothSolver	1.967890e-05	1.934610e-06	4	true
76            	smoothSolver	7.294120e-05	7.018360e-06	11	1.070580e-03	1.029630e-04	11	1.660830e-03	1.614100e-04	11	false	smoothSolver	3.599360e-04	2.276070e-05	5	true	GAMG	4.439910e-03	4.190180e-05	5	true	smoothSolver	1.944860e-05	1.909380e-06	4	true
77            	smoothSolver	7.383920e-05	6.996550e-06	11	1.015270e-03	9.546500e-05	11	1.645470e-03	1.564380e-04	11	false	smoothSolver	3.823690e-04	2.392670e-05	5	true	GAMG	4.514420e-03	4.417540e-05	5	true	smoothSolver	1.921110e-05	1.885990e-06	4	true
78            	smoothSolver	7.425490e-05	6.965210e-06	11	9.665840e-04	8.912340e-05	11	1.642610e-03	1.534420e-04	11	false	smoothSolver	4.074420e-04	2.518360e-05	5	true	GAMG	4.579510e-03	2.361950e-05	6	true	smoothSolver	1.896890e-05	1.864470e-06	4	true
79            	smoothSolver	7.402970e-05	6.942180e-06	11	9.261830e-04	8.423610e-05	11	1.658220e-03	1.529170e-04	11	false	smoothSolver	4.327010e-04	2.651930e-05	5	true	GAMG	4.633710e-03	2.379300e-05	6	true	smoothSolver	1.871320e-05	1.845550e-06	4	true
80            	smoothSolver	7.320320e-05	6.861210e-06	11	8.937840e-04	8.060250e-05	11	1.685870e-03	1.544800e-04	11	false	smoothSolver	4.585120e-04	2.781710e-05	5	true	GAMG	4.644390e-03	2.430190e-05	6	true	smoothSolver	1.843610e-05	1.828040e-06	4	true
81            	smoothSolver	7.165330e-05	6.736770e-06	11	8.742940e-04	7.925310e-05	11	1.738920e-03	1.607090e-04	11	false	smoothSolver	4.815090e-04	2.893180e-05	5	true	GAMG	4.605080e-03	2.385940e-05	6	true	smoothSolver	1.809500e-05	1.094540e-06	5	true
82            	smoothSolver	6.990260e-05	6.570830e-06	11	8.753470e-04	8.071750e-05	11	1.828320e-03	1.724630e-04	11	false	smoothSolver	5.010910e-04	2.977200e-05	5	true	GAMG	4.510330e-03	2.283720e-05	6	true	smoothSolver	1.759750e-05	1.073580e-06	5	true
83            	smoothSolver	6.817480e-05	6.414390e-06	11	8.989750e-04	8.576050e-05	11	1.978260e-03	1.928930e-04	11	false	smoothSolver	5.155260e-04	3.027540e-05	5	true	GAMG	4.384260e-03	4.305960e-05	5	true	smoothSolver	1.709810e-05	1.049860e-06	5	true
84            	smoothSolver	6.699250e-05	6.288050e-06	11	9.467020e-04	9.432800e-05	11	2.198680e-03	1.880630e-04	12	false	smoothSolver	5.234370e-04	5.231900e-05	4	true	GAMG	4.257800e-03	4.175770e-05	5	true	smoothSolver	1.663070e-05	1.023980e-06	5	true
85            	smoothSolver	6.714780e-05	6.292270e-06	11	1.030870e-03	8.956210e-05	12	2.528430e-03	2.228350e-04	12	false	smoothSolver	5.273860e-04	5.208110e-05	4	true	GAMG	4.180120e-03	3.877900e-05	5	true	smoothSolver	1.613830e-05	9.940000e-07	5	true
86            	smoothSolver	6.810170e-05	6.411350e-06	11	1.139170e-03	9.884220e-05	12	2.988380e-03	2.642680e-04	12	false	smoothSolver	5.250400e-04	5.147020e-05	4	true	GAMG	4.324870e-03	3.749240e-05	5	true	smoothSolver	1.563920e-05	9.617150e-07	5	true
87            	smoothSolver	6.952540e-05	6.592660e-06	11	1.260970e-03	1.068450e-04	12	3.554160e-03	3.086940e-04	12	false	smoothSolver	5.170590e-04	5.010310e-05	4	true	GAMG	4.652720e-03	3.725610e-05	5	true	smoothSolver	1.508990e-05	9.261550e-07	5	true
88            	smoothSolver	7.047950e-05	6.741950e-06	11	1.370670e-03	1.358260e-04	11	4.148980e-03	3.509190e-04	12	false	smoothSolver	5.030670e-04	4.881610e-05	4	true	GAMG	5.086490e-03	3.719610e-05	5	true	smoothSolver	1.452140e-05	8.910960e-07	5	true
89            	smoothSolver	7.049820e-05	6.779180e-06	11	1.459110e-03	1.411360e-04	11	4.664990e-03	4.623990e-04	11	false	smoothSolver	4.855760e-04	4.713470e-05	4	true	GAMG	5.534290e-03	3.635680e-05	5	true	smoothSolver	1.395860e-05	8.571640e-07	5	true
90            	smoothSolver	6.924320e-05	6.675020e-06	11	1.491980e-03	1.414080e-04	11	4.998340e-03	4.812590e-04	11	false	smoothSolver	4.633910e-04	4.531280e-05	4	true	GAMG	5.866860e-03	3.507380e-05	5	true	smoothSolver	1.344880e-05	8.256380e-07	5	true
91            	smoothSolver	6.674270e-05	6.404160e-06	11	1.477780e-03	1.364100e-04	11	4.966490e-03	4.659040e-04	11	false	smoothSolver	4.377920e-04	4.316420e-05	4	true	GAMG	5.943420e-03	3.497120e-05	5	true	smoothSolver	1.296430e-05	7.970750e-07	5	true
92            	smoothSolver	6.321730e-05	5.994060e-06	11	1.406630e-03	1.263880e-04	11	4.528610e-03	4.151930e-04	11	false	smoothSolver	4.110570e-04	4.095950e-05	4	true	GAMG	5.802770e-03	3.776010e-05	5	true	smoothSolver	1.250460e-05	7.698550e-07	5	true
93            	smoothSolver	5.900770e-05	5.479580e-06	11	1.287920e-03	1.135400e-04	11	3.807220e-03	3.426360e-04	11	false	smoothSolver	3.840430e-04	2.230340e-05	5	true	GAMG	5.541780e-03	4.104800e-05	5	true	smoothSolver	1.205790e-05	7.437970e-07	5	true
94            	smoothSolver	5.476880e-05	4.980980e-06	11	1.139120e-03	1.000080e-04	11	3.012210e-03	2.687560e-04	11	false	smoothSolver	3.539670e-04	2.080630e-05	5	true	GAMG	5.173050e-03	4.364440e-05	5	true	smoothSolver	1.162900e-05	7.192910e-07	5	true
95            	smoothSolver	5.115640e-05	4.590620e-06	11	9.978370e-04	8.896410e-05	11	2.334160e-03	2.114670e-04	11	false	smoothSolver	3.248760e-04	1.943130e-05	5	true	GAMG	4.737700e-03	4.468350e-05	5	true	smoothSolver	1.122760e-05	6.965240e-07	5	true
96            	smoothSolver	4.796110e-05	4.314780e-06	11	8.881460e-04	8.366040e-05	11	1.827920e-03	1.747930e-04	11	false	smoothSolver	2.976040e-04	1.821870e-05	5	true	GAMG	4.269850e-03	2.219870e-05	6	true	smoothSolver	1.085620e-05	6.755470e-07	5	true
97            	smoothSolver	4.546370e-05	4.189480e-06	11	8.200110e-04	7.103950e-05	12	1.486640e-03	1.300110e-04	12	false	smoothSolver	2.731300e-04	1.703830e-05	5	true	GAMG	3.837240e-03	2.074020e-05	6	true	smoothSolver	1.051640e-05	6.562110e-07	5	true
98            	smoothSolver	4.367430e-05	4.211740e-06	11	7.831400e-04	7.320640e-05	12	1.275060e-03	1.207570e-04	12	false	smoothSolver	2.528830e-04	1.605420e-05	5	true	GAMG	3.464470e-03	2.015320e-05	6	true	smoothSolver	1.022200e-05	6.395710e-07	5	true
99            	smoothSolver	4.292530e-05	3.646730e-06	12	7.656620e-04	7.527310e-05	12	1.148170e-03	1.142400e-04	12	false	smoothSolver	2.367780e-04	1.524710e-05	5	true	GAMG	3.213920e-03	1.953750e-05	6	true	smoothSolver	9.994290e-06	6.263000e-07	5	true
100           	smoothSolver	4.300420e-05	3.780610e-06	12	7.569900e-04	6.388620e-05	13	1.056820e-03	9.089230e-05	13	false	smoothSolver	2.262700e-04	1.469100e-05	5	true	GAMG	3.043610e-03	1.872110e-05	6	true	smoothSolver	9.833410e-06	6.158880e-07	5	true
101           	smoothSolver	4.392860e-05	3.894560e-06	12	7.399770e-04	6.219910e-05	13	9.761280e-04	8.407010e-05	13	false	smoothSolver	2.210160e-04	1.435970e-05	5	true	GAMG	2.932400e-03	1.778870e-05	6	true	smoothSolver	9.744460e-06	6.084290e-07	5	true
102           	smoothSolver	4.536190e-05	3.982530e-06	12	7.161970e-04	7.067990e-05	12	9.034580e-04	7.668810e-05	13	false	smoothSolver	2.199130e-04	1.426100e-05	5	true	GAMG	2.910860e-03	1.675930e-05	6	true	smoothSolver	9.709690e-06	6.041340e-07	5	true
103           	smoothSolver	4.701180e-05	4.050450e-06	12	6.885350e-04	6.634360e-05	12	8.337630e-04	8.293160e-05	12	false	smoothSolver	2.224370e-04	1.430720e-05	5	true	GAMG	3.003540e-03	1.553590e-05	6	true	smoothSolver	9.726690e-06	6.025190e-07	5	true
104           	smoothSolver	4.855130e-05	4.089470e-06	12	6.532070e-04	6.103660e-05	12	7.753590e-04	7.535930e-05	12	false	smoothSolver	2.275670e-04	1.450030e-05	5	true	GAMG	3.179140e-03	3.128710e-05	5	true	smoothSolver	9.786240e-06	6.030920e-07	5	true
105           	smoothSolver	4.973280e-05	4.950830e-06	11	6.165610e-04	5.538920e-05	12	7.206670e-04	6.804620e-05	12	false	smoothSolver	2.335540e-04	1.475960e-05	5	true	GAMG	3.396530e-03	3.088710e-05	5	true	smoothSolver	9.864690e-06	6.047680e-07	5	true
106           	smoothSolver	5.088230e-05	4.999080e-06	11	5.810080e-04	5.015710e-05	12	6.732490e-04	6.157550e-05	12	false	smoothSolver	2.402690e-04	1.504990e-05	5	true	GAMG	3.631270e-03	3.001320e-05	5	true	smoothSolver	9.953990e-06	6.079090e-07	5	true
107           	smoothSolver	5.162270e-05	5.066930e-06	11	5.502410e-04	4.611760e-05	12	6.348030e-04	5.644220e-05	12	false	smoothSolver	2.469460e-04	1.535050e-05	5	true	GAMG	3.866730e-03	3.411020e-05	5	true	smoothSolver	1.006420e-05	6.125690e-07	5	true
108           	smoothSolver	5.259560e-05	5.167070e-06	11	5.262700e-04	4.339860e-05	12	6.056180e-04	5.285940e-05	12	false	smoothSolver	2.543140e-04	1.567470e-05	5	true	GAMG	4.081840e-03	4.063040e-05	5	true	smoothSolver	1.019480e-05	6.193650e-07	5	true
109           	smoothSolver	5.400840e-05	5.329960e-06	11	5.121730e-04	5.102030e-05	11	5.936890e-04	5.145000e-05	12	false	smoothSolver	2.639270e-04	1.601820e-05	5	true	GAMG	4.243410e-03	2.395530e-05	6	true	smoothSolver	1.038140e-05	6.294400e-07	5	true
110           	smoothSolver	5.563570e-05	5.545730e-06	11	5.146440e-04	4.284740e-05	12	6.070630e-04	5.324270e-05	12	false	smoothSolver	2.753760e-04	1.636810e-05	5	true	GAMG	4.369400e-03	2.597490e-05	6	true	smoothSolver	1.064810e-05	6.430700e-07	5	true
111           	smoothSolver	5.773720e-05	4.857640e-06	12	5.276870e-04	4.505670e-05	12	6.485250e-04	5.809020e-05	12	false	smoothSolver	2.883260e-04	1.677880e-05	5	true	GAMG	4.444940e-03	2.820980e-05	6	true	smoothSolver	1.097150e-05	1.096790e-06	4	true
112           	smoothSolver	5.991590e-05	5.109010e-06	12	5.671260e-04	5.026840e-05	12	7.205140e-04	6.637450e-05	12	false	smoothSolver	3.027440e-04	2.997760e-05	4	true	GAMG	4.489610e-03	2.889820e-05	6	true	smoothSolver	1.138590e-05	1.134850e-06	4	true
113           	smoothSolver	6.238740e-05	5.333950e-06	12	6.233950e-04	5.783650e-05	12	8.145560e-04	7.744400e-05	12	false	smoothSolver	3.173260e-04	3.118500e-05	4	true	GAMG	4.540330e-03	2.863030e-05	6	true	smoothSolver	1.176610e-05	1.169950e-06	4	true
114           	smoothSolver	6.465770e-05	5.524590e-06	12	7.007310e-04	6.763980e-05	12	9.364200e-04	9.166100e-05	12	false	smoothSolver	3.315410e-04	3.250140e-05	4	true	GAMG	4.557160e-03	2.729750e-05	6	true	smoothSolver	1.209680e-05	1.201650e-06	4	true
115           	smoothSolver	6.670480e-05	5.670040e-06	12	8.017830e-04	7.985030e-05	12	1.094960e-03	9.287480e-05	13	false	smoothSolver	3.459830e-04	3.391220e-05	4	true	GAMG	4.538410e-03	2.543650e-05	6	true	smoothSolver	1.237390e-05	1.229240e-06	4	true
116           	smoothSolver	6.875040e-05	5.877310e-06	12	9.478590e-04	8.125870e-05	13	1.310460e-03	1.118190e-04	13	false	smoothSolver	3.592520e-04	3.532610e-05	4	true	GAMG	4.584440e-03	2.321130e-05	6	true	smoothSolver	1.258380e-05	1.252440e-06	4	true
117           	smoothSolver	7.106700e-05	6.166500e-06	12	1.137080e-03	1.134660e-04	12	1.611530e-03	1.610470e-04	12	false	smoothSolver	3.710240e-04	3.655730e-05	4	true	GAMG	4.702210e-03	4.320170e-05	5	true	smoothSolver	1.270210e-05	7.643420e-07	5	true